# vtk DataFile Version 3.0
vtk output
ASCII
DATASET UNSTRUCTURED_GRID
POINTS 6 double 
0.058749626590426852 0.000000000000000000 0.000000000000000000
0.058749626377575623 0.001784380000000000 0.000000000000000000
0.058749626164759268 0.003568760000000000 0.000000000000000000
0.000000000000000000 0.000000000000000000 0.000000000000000000
0.000000000000000000 0.000000000000000000 0.000000000000000000
0.000000000000000000 0.000000000000000000 0.000000000000000000
CELLS 4 16
3 0 3 1
3 3 4 1
3 1 4 2
3 4 5 2
CELL_TYPES 4
5
5
5
5
POINT_DATA 6
SCALARS density double 1
LOOKUP_TABLE default
300.000000000000000000
300.000000000000000000
300.000000000000000000
737.987914499999988038
737.987914499999988038
737.987914499999988038
