# vtk DataFile Version 3.0
vtk output
ASCII
DATASET UNSTRUCTURED_GRID
POINTS 0 double 
CELLS 0 0
CELL_TYPES 0
POINT_DATA 0
SCALARS density double 1
LOOKUP_TABLE default
