# vtk DataFile Version 3.0
vtk output
ASCII
DATASET UNSTRUCTURED_GRID
POINTS 594 double 
0.059611100032250820 0.000000000000000000 0.000000000000000000
0.059611099572957613 0.001784375053830445 0.000000000000000000
0.059611099113664273 0.003568750107660890 0.000000000000000000
0.059611099113664141 0.005353125161491335 0.000000000000000000
0.059611099113664141 0.007137500215321780 0.000000000000000000
0.059611099113664134 0.008921875269152226 0.000000000000000000
0.059611099113664134 0.010706250322982671 0.000000000000000000
0.059611099113664134 0.012490625376813115 0.000000000000000000
0.059611099113664134 0.014275000430643560 0.000000000000000000
0.059611099113664134 0.016059375484474007 0.000000000000000000
0.059611099113664127 0.017843750538304452 0.000000000000000000
0.059611099113664127 0.019628125592134896 0.000000000000000000
0.059611099113664127 0.021412500645965341 0.000000000000000000
0.059611099113664121 0.023196875699795786 0.000000000000000000
0.059611099113664121 0.024981250753626231 0.000000000000000000
0.059611099113664127 0.026765625807456676 0.000000000000000000
0.059611099113664121 0.028550000861287120 0.000000000000000000
0.059611099113664121 0.030334375915117565 0.000000000000000000
0.059611099113664121 0.032118750968948014 0.000000000000000000
0.059611099113664121 0.033903126022778458 0.000000000000000000
0.059611099113664127 0.035687501076608903 0.000000000000000000
0.059611099113664127 0.037471876130439348 0.000000000000000000
0.059611099113664127 0.039256251184269793 0.000000000000000000
0.059611099113664134 0.041040626238100238 0.000000000000000000
0.059611099113664134 0.042825001291930682 0.000000000000000000
0.059611099113664134 0.044609376345761127 0.000000000000000000
0.059611099113664134 0.046393751399591572 0.000000000000000000
0.059611099113664134 0.048178126453422017 0.000000000000000000
0.059611099113664141 0.049962501507252462 0.000000000000000000
0.059611099113664141 0.051746876561082907 0.000000000000000000
0.059611099113664273 0.053531251614913351 0.000000000000000000
0.059611099572957613 0.055315626668743796 0.000000000000000000
0.059611100032250813 0.057100001722574241 0.000000000000000000
0.059464203191984068 0.000000000000000000 0.001784375053830445
0.059464233041339527 0.001784375053830445 0.001784375053830445
0.059464262890694793 0.003568750107660890 0.001784375053830445
0.059464262890694584 0.005353125161491335 0.001784375053830445
0.059464262890694550 0.007137500215321780 0.001784375053830445
0.059464262890694494 0.008921875269152226 0.001784375053830445
0.059464262890694439 0.010706250322982671 0.001784375053830445
0.059464262890694383 0.012490625376813115 0.001784375053830445
0.059464262890694328 0.014275000430643560 0.001784375053830445
0.059464262890694265 0.016059375484474007 0.001784375053830445
0.059464262890694210 0.017843750538304452 0.001784375053830445
0.059464262890694161 0.019628125592134896 0.001784375053830445
0.059464262890694120 0.021412500645965341 0.001784375053830445
0.059464262890694078 0.023196875699795786 0.001784375053830445
0.059464262890694057 0.024981250753626231 0.001784375053830445
0.059464262890694036 0.026765625807456676 0.001784375053830445
0.059464262890694036 0.028550000861287120 0.001784375053830445
0.059464262890694036 0.030334375915117565 0.001784375053830445
0.059464262890694057 0.032118750968948014 0.001784375053830445
0.059464262890694078 0.033903126022778458 0.001784375053830445
0.059464262890694120 0.035687501076608903 0.001784375053830445
0.059464262890694161 0.037471876130439348 0.001784375053830445
0.059464262890694210 0.039256251184269793 0.001784375053830445
0.059464262890694265 0.041040626238100238 0.001784375053830445
0.059464262890694328 0.042825001291930682 0.001784375053830445
0.059464262890694383 0.044609376345761127 0.001784375053830445
0.059464262890694439 0.046393751399591572 0.001784375053830445
0.059464262890694494 0.048178126453422017 0.001784375053830445
0.059464262890694550 0.049962501507252462 0.001784375053830445
0.059464262890694584 0.051746876561082907 0.001784375053830445
0.059464262890694793 0.053531251614913351 0.001784375053830445
0.059464233041339527 0.055315626668743796 0.001784375053830445
0.059464203191984068 0.057100001722574241 0.001784375053830445
0.059122464538392552 0.000000000000000000 0.003568750107660890
0.058884375484474005 0.000000000000000000 0.004820349042532710
0.059122565447533297 0.001784375053830445 0.003568750107660890
0.058884375484474005 0.001784375053830445 0.004821004252647121
0.059122666356673750 0.003568750107660890 0.003568750107660890
0.058884375484474005 0.003568750107660890 0.004821659593325689
0.059122666356673445 0.005353125161491335 0.003568750107660890
0.058884375484474005 0.005353125161491335 0.004821659593323864
0.059122666356673438 0.007137500215321780 0.003568750107660890
0.058884375484474005 0.007137500215321780 0.004821659593323979
0.059122666356673417 0.008921875269152226 0.003568750107660890
0.058884375484474005 0.008921875269152226 0.004821659593324120
0.059122666356673403 0.010706250322982671 0.003568750107660890
0.058884375484474005 0.010706250322982671 0.004821659593324282
0.059122666356673390 0.012490625376813115 0.003568750107660890
0.058884375484474005 0.012490625376813115 0.004821659593324461
0.059122666356673376 0.014275000430643560 0.003568750107660890
0.058884375484474005 0.014275000430643560 0.004821659593324654
0.059122666356673362 0.016059375484474007 0.003568750107660890
0.058884375484474005 0.016059375484474007 0.004821659593324852
0.059122666356673348 0.017843750538304452 0.003568750107660890
0.058884375484474005 0.017843750538304452 0.004821659593325047
0.059122666356673334 0.019628125592134896 0.003568750107660890
0.058884375484474005 0.019628125592134896 0.004821659593325229
0.059122666356673320 0.021412500645965341 0.003568750107660890
0.058884375484474005 0.021412500645965341 0.004821659593325392
0.059122666356673313 0.023196875699795786 0.003568750107660890
0.058884375484474005 0.023196875699795786 0.004821659593325529
0.059122666356673306 0.024981250753626231 0.003568750107660890
0.058884375484474005 0.024981250753626231 0.004821659593325630
0.059122666356673306 0.026765625807456676 0.003568750107660890
0.058884375484474005 0.026765625807456676 0.004821659593325692
0.059122666356673306 0.028550000861287120 0.003568750107660890
0.058884375484474005 0.028550000861287120 0.004821659593325716
0.059122666356673306 0.030334375915117565 0.003568750107660890
0.058884375484474005 0.030334375915117565 0.004821659593325694
0.059122666356673306 0.032118750968948014 0.003568750107660890
0.058884375484474005 0.032118750968948014 0.004821659593325629
0.059122666356673313 0.033903126022778458 0.003568750107660890
0.058884375484474005 0.033903126022778458 0.004821659593325527
0.059122666356673320 0.035687501076608903 0.003568750107660890
0.058884375484474005 0.035687501076608903 0.004821659593325391
0.059122666356673334 0.037471876130439348 0.003568750107660890
0.058884375484474005 0.037471876130439348 0.004821659593325227
0.059122666356673341 0.039256251184269793 0.003568750107660890
0.058884375484474005 0.039256251184269793 0.004821659593325045
0.059122666356673362 0.041040626238100238 0.003568750107660890
0.058884375484474005 0.041040626238100238 0.004821659593324850
0.059122666356673376 0.042825001291930682 0.003568750107660890
0.058884375484474005 0.042825001291930682 0.004821659593324653
0.059122666356673390 0.044609376345761127 0.003568750107660890
0.058884375484474005 0.044609376345761127 0.004821659593324461
0.059122666356673403 0.046393751399591572 0.003568750107660890
0.058884375484474005 0.046393751399591572 0.004821659593324282
0.059122666356673424 0.048178126453422017 0.003568750107660890
0.058884375484474005 0.048178126453422017 0.004821659593324120
0.059122666356673438 0.049962501507252462 0.003568750107660890
0.058884375484474005 0.049962501507252462 0.004821659593323982
0.059122666356673445 0.051746876561082907 0.003568750107660890
0.058884375484474005 0.051746876561082907 0.004821659593323867
0.059122666356673750 0.053531251614913351 0.003568750107660890
0.058884375484474005 0.053531251614913351 0.004821659593325691
0.059122565447533297 0.055315626668743796 0.003568750107660890
0.058884375484474005 0.055315626668743796 0.004821004252647118
0.059122464538392552 0.057100001722574241 0.003568750107660890
0.058884375484474005 0.057100001722574241 0.004820349042532698
0.058848320169739690 0.000000000000000000 0.005353125161491335
0.058848367130822574 0.001784375053830445 0.005353125161491335
0.058848414094428203 0.003568750107660890 0.005353125161491335
0.058848414094428078 0.005353125161491335 0.005353125161491335
0.058848414094428092 0.007137500215321780 0.005353125161491335
0.058848414094428099 0.008921875269152226 0.005353125161491335
0.058848414094428120 0.010706250322982671 0.005353125161491335
0.058848414094428134 0.012490625376813115 0.005353125161491335
0.058848414094428154 0.014275000430643560 0.005353125161491335
0.058848414094428175 0.016059375484474007 0.005353125161491335
0.058848414094428189 0.017843750538304452 0.005353125161491335
0.058848414094428210 0.019628125592134896 0.005353125161491335
0.058848414094428231 0.021412500645965341 0.005353125161491335
0.058848414094428245 0.023196875699795786 0.005353125161491335
0.058848414094428245 0.024981250753626231 0.005353125161491335
0.058848414094428259 0.026765625807456676 0.005353125161491335
0.058848414094428259 0.028550000861287120 0.005353125161491335
0.058848414094428259 0.030334375915117565 0.005353125161491335
0.058848414094428245 0.032118750968948014 0.005353125161491335
0.058848414094428245 0.033903126022778458 0.005353125161491335
0.058848414094428231 0.035687501076608903 0.005353125161491335
0.058848414094428210 0.037471876130439348 0.005353125161491335
0.058848414094428189 0.039256251184269793 0.005353125161491335
0.058848414094428175 0.041040626238100238 0.005353125161491335
0.058848414094428154 0.042825001291930682 0.005353125161491335
[...]
POINT_DATA 594
SCALARS density double 1
LOOKUP_TABLE default
167.500000000000000000
167.499999999999971578
167.500000000000028422
167.500000000000000000
167.499999999999971578
167.500000000000000000
167.500000000000028422
167.500000000000000000
167.500000000000000000
167.499999999999971578
167.499999999999971578
167.500000000000000000
167.500000000000000000
167.500000000000000000
167.500000000000000000
167.500000000000000000
167.500000000000000000
167.500000000000028422
167.499999999999971578
167.499999999999971578
167.500000000000000000
167.500000000000000000
167.500000000000000000
167.499999999999971578
167.500000000000028422
167.500000000000000000
167.500000000000000000
167.500000000000028422
167.500000000000000000
167.499999999999971578
167.500000000000000000
167.500000000000000000
167.500000000000000000
167.500000000000000000
167.500000000000028422
167.500000000000000000
167.500000000000000000
167.500000000000000000
167.500000000000000000
167.500000000000000000
167.500000000000000000
167.500000000000000000
167.500000000000000000
167.500000000000000000
167.500000000000000000
167.500000000000000000
167.500000000000028422
167.500000000000000000
167.500000000000000000
167.500000000000000000
167.500000000000000000
167.500000000000000000
167.500000000000028422
167.499999999999971578
167.500000000000000000
167.500000000000028422
167.499999999999971578
167.500000000000000000
167.500000000000000000
167.499999999999971578
167.500000000000028422
167.500000000000000000
167.500000000000028422
167.500000000000000000
167.500000000000028422
167.500000000000000000
167.500000000000000000
167.500000000000000000
167.500000000000000000
167.500000000000000000
167.500000000000000000
167.500000000000000000
167.500000000000000000
167.500000000000000000
167.500000000000000000
167.500000000000000000
167.500000000000000000
167.500000000000000000
167.500000000000000000
167.500000000000000000
167.500000000000000000
167.500000000000000000
167.499999999999971578
167.500000000000000000
167.500000000000000000
167.500000000000000000
167.500000000000000000
167.500000000000000000
167.500000000000000000
167.500000000000000000
167.499999999999971578
167.500000000000000000
167.500000000000028422
167.500000000000000000
167.500000000000000000
167.500000000000000000
167.500000000000000000
167.500000000000000000
167.500000000000000000
167.500000000000000000
167.500000000000000000
167.500000000000000000
167.500000000000028422
167.500000000000000000
167.500000000000028422
167.500000000000000000
167.500000000000000000
167.500000000000000000
167.500000000000000000
167.500000000000000000
167.499999999999971578
167.500000000000000000
167.500000000000028422
167.500000000000000000
167.500000000000000000
167.500000000000000000
167.500000000000000000
167.500000000000000000
167.500000000000000000
167.500000000000000000
167.500000000000000000
167.500000000000000000
167.499999999999971578
167.500000000000000000
167.500000000000000000
167.500000000000000000
167.500000000000000000
167.500000000000000000
167.500000000000000000
167.500000000000000000
167.500000000000000000
167.500000000000000000
167.500000000000000000
167.500000000000000000
167.500000000000000000
167.500000000000000000
167.499999999999971578
167.500000000000000000
167.500000000000056843
167.500000000000000000
167.499999999999943157
167.499999999999971578
167.500000000000000000
167.500000000000000000
167.500000000000000000
167.500000000000000000
167.500000000000028422
167.500000000000000000
167.500000000000000000
167.500000000000028422
167.500000000000028422
167.500000000000028422
167.499999999999971578
167.500000000000000000
167.500000000000000000
167.500000000000000000
167.499999999999943157
167.500000000000028422
167.500000000000056843
167.499999999999971578
167.500000000000028422
167.499999999999971578
167.500000000000028422
167.499999999999971578
167.500000000000000000
167.499999999999971578
167.499999999999971578
167.500000000000000000
167.500000000000028422
167.499999999999943157
167.499999999999971578
167.500000000000000000
167.500000000000028422
167.499999999999971578
167.499999999999971578
167.500000000000000000
167.500000000000000000
167.500000000000000000
167.500000000000056843
167.500000000000000000
167.500000000000000000
167.500000000000000000
167.500000000000000000
167.500000000000000000
167.500000000000028422
167.500000000000028422
167.500000000000000000
167.500000000000000000
167.499999999999971578
167.500000000000000000
167.500000000000000000
167.500000000000000000
167.499999999999971578
167.500000000000000000
167.500000000000028422
167.499999999999971578
167.500000000000000000
167.500000000000000000
167.500000000000000000
167.499999999999943157
167.500000000000028422
167.500000000000000000
167.500000000000000000
167.500000000000000000
167.500000000000028422
167.500000000000000000
167.500000000000000000
167.500000000000028422
167.500000000000000000
167.500000000000000000
167.500000000000000000
167.500000000000028422
167.500000000000000000
167.500000000000028422
167.500000000000000000
167.499999999999971578
167.499999999999971578
167.500000000000000000
167.500000000000028422
167.500000000000028422
167.500000000000000000
167.499999999999943157
167.500000000000000000
167.500000000000000000
167.500000000000000000
167.500000000000000000
167.500000000000000000
167.500000000000000000
167.500000000000028422
167.500000000000000000
167.500000000000000000
167.500000000000056843
167.499999999999971578
167.500000000000000000
167.500000000000000000
167.500000000000000000
167.500000000000000000
167.500000000000000000
167.500000000000000000
167.500000000000000000
167.499999999999943157
167.500000000000000000
167.500000000000028422
167.500000000000000000
167.500000000000000000
167.499999999999971578
167.499999999999971578
167.500000000000000000
167.500000000000000000
167.499999999999971578
167.500000000000000000
167.500000000000000000
167.500000000000028422
167.499999999999971578
167.500000000000000000
167.500000000000000000
167.500000000000000000
167.499999999999971578
167.499999999999943157
167.500000000000000000
167.500000000000000000
167.500000000000000000
167.500000000000000000
167.500000000000028422
167.500000000000056843
167.500000000000000000
167.499999999999971578
167.500000000000028422
167.500000000000000000
167.499999999999971578
167.500000000000000000
167.499999999999971578
167.500000000000000000
167.500000000000000000
167.499999999999943157
167.499999999999971578
167.500000000000000000
167.500000000000000000
167.500000000000000000
167.500000000000000000
167.500000000000000000
167.499999999999943157
167.500000000000000000
167.499999999999971578
167.499999999999971578
167.500000000000000000
167.499999999999943157
167.500000000000000000
167.500000000000000000
167.500000000000000000
167.500000000000000000
167.500000000000000000
167.499999999999971578
167.500000000000000000
167.499999999999971578
167.500000000000028422
167.500000000000056843
167.500000000000028422
167.500000000000056843
167.500000000000000000
167.500000000000000000
167.500000000000000000
167.500000000000000000
167.499999999999971578
167.500000000000000000
167.500000000000000000
167.500000000000028422
167.500000000000000000
167.500000000000000000
167.500000000000000000
167.499999999999971578
167.499999999999943157
167.500000000000000000
167.499999999999971578
167.500000000000000000
167.500000000000028422
167.499999999999971578
167.500000000000056843
167.499999999999971578
167.500000000000000000
167.500000000000000000
167.500000000000000000
167.500000000000000000
167.500000000000000000
167.500000000000028422
167.500000000000000000
167.500000000000000000
167.500000000000028422
167.500000000000000000
167.500000000000028422
167.499999999999971578
167.499999999999971578
167.500000000000000000
167.500000000000000000
167.500000000000000000
167.500000000000028422
167.500000000000000000
167.500000000000000000
167.500000000000000000
167.500000000000000000
167.500000000000000000
167.500000000000000000
167.500000000000000000
167.499999999999971578
167.500000000000028422
167.499999999999971578
167.500000000000028422
167.500000000000028422
167.500000000000000000
167.500000000000000000
167.500000000000000000
167.500000000000000000
167.500000000000028422
167.500000000000000000
167.500000000000000000
167.500000000000000000
167.500000000000000000
167.500000000000028422
167.500000000000000000
167.500000000000000000
167.500000000000028422
167.500000000000028422
167.500000000000028422
167.500000000000000000
167.500000000000028422
167.500000000000000000
167.500000000000056843
167.500000000000000000
167.500000000000000000
167.499999999999971578
167.500000000000000000
167.500000000000028422
167.499999999999943157
167.500000000000056843
167.500000000000000000
167.499999999999971578
167.500000000000000000
167.500000000000000000
167.500000000000000000
167.500000000000028422
167.500000000000000000
167.500000000000000000
167.499999999999943157
167.499999999999971578
167.500000000000000000
167.500000000000028422
167.500000000000000000
167.500000000000000000
167.500000000000000000
167.500000000000000000
167.499999999999971578
167.500000000000000000
167.500000000000028422
167.500000000000000000
167.500000000000056843
167.500000000000000000
167.500000000000000000
167.499999999999971578
167.500000000000000000
167.500000000000000000
167.500000000000000000
167.499999999999971578
167.500000000000000000
167.500000000000000000
167.500000000000000000
167.499999999999943157
167.500000000000028422
167.500000000000028422
167.499999999999971578
167.500000000000000000
167.500000000000000000
167.500000000000000000
167.500000000000000000
167.499999999999943157
167.500000000000000000
167.500000000000000000
167.499999999999971578
167.500000000000028422
167.500000000000000000
167.499999999999971578
167.500000000000000000
167.500000000000000000
167.500000000000028422
167.500000000000028422
167.500000000000028422
167.500000000000000000
167.499999999999971578
167.499999999999971578
167.500000000000000000
167.500000000000028422
167.500000000000000000
167.500000000000000000
167.499999999999971578
167.500000000000000000
167.500000000000000000
167.500000000000028422
167.500000000000028422
167.500000000000000000
167.500000000000000000
167.500000000000000000
167.500000000000028422
167.500000000000000000
167.500000000000000000
167.500000000000000000
167.500000000000028422
167.500000000000000000
167.500000000000000000
167.499999999999971578
167.500000000000028422
167.500000000000000000
167.500000000000028422
167.499999999999971578
167.500000000000000000
167.500000000000000000
167.499999999999971578
167.499999999999971578
167.500000000000028422
167.500000000000000000
167.500000000000000000
167.500000000000000000
167.500000000000028422
167.499999999999971578
167.500000000000000000
167.500000000000000000
167.500000000000000000
167.500000000000028422
167.500000000000000000
167.500000000000000000
167.500000000000000000
167.500000000000000000
167.499999999999971578
167.500000000000000000
167.499999999999971578
167.500000000000028422
167.499999999999971578
167.499999999999971578
167.500000000000000000
167.499999999999943157
167.500000000000000000
167.500000000000000000
167.500000000000000000
167.500000000000028422
167.500000000000056843
167.500000000000056843
167.500000000000000000
167.500000000000028422
167.500000000000000000
167.500000000000000000
167.500000000000000000
167.500000000000000000
167.500000000000000000
167.499999999999971578
167.499999999999943157
167.500000000000000000
167.500000000000028422
167.500000000000000000
167.500000000000000000
167.500000000000000000
167.500000000000000000
167.500000000000000000
167.500000000000000000
167.499999999999971578
167.499999999999971578
167.500000000000000000
167.500000000000028422
167.500000000000000000
167.500000000000000000
167.500000000000000000
167.500000000000000000
167.500000000000000000
167.500000000000000000
167.500000000000028422
167.499999999999971578
167.500000000000000000
167.500000000000000000
167.500000000000000000
167.499999999999971578
167.499999999999971578
167.500000000000000000
167.500000000000000000
167.500000000000000000
167.499999999999971578
167.500000000000000000
167.500000000000000000
167.499999999999971578
167.499999999999971578
167.500000000000000000
167.500000000000000000
167.500000000000000000
167.500000000000000000
167.500000000000000000
167.499999999999971578
167.500000000000028422
167.500000000000000000
167.499999999999971578
167.499999999999971578
167.500000000000056843
167.499999999999971578
167.500000000000000000
167.500000000000000000
167.500000000000000000
167.500000000000000000
167.500000000000000000
167.499999999999971578
167.499999999999971578
167.500000000000000000
167.500000000000000000
167.500000000000028422
167.499999999999971578
167.500000000000028422
167.499999999999971578
167.500000000000028422
167.500000000000028422
167.500000000000000000
167.500000000000000000
167.500000000000028422
167.500000000000000000
167.500000000000000000
167.500000000000000000
167.500000000000000000
167.500000000000000000
999.999999999999886313
999.999999999999886313
999.999999999999886313
999.999999999999886313
999.999999999999886313
999.999999999999886313
999.999999999999886313
999.999999999999886313
999.999999999999886313
999.999999999999886313
999.999999999999886313
999.999999999999886313
999.999999999999886313
999.999999999999886313
999.999999999999886313
999.999999999999886313
999.999999999999886313
999.999999999999886313
999.999999999999886313
999.999999999999886313
999.999999999999886313
999.999999999999886313
999.999999999999886313
999.999999999999886313
999.999999999999886313
999.999999999999886313
999.999999999999886313
999.999999999999886313
999.999999999999886313
999.999999999999886313
999.999999999999886313
999.999999999999886313
999.999999999999886313
