# vtk DataFile Version 5.1
vtk output
ASCII
DATASET STRUCTURED_POINTS
DIMENSIONS 2 3 2
SPACING 0.00178438 0.00178438 0.00178438
ORIGIN 0.0571 0 0
POINT_DATA 12
SCALARS density double
LOOKUP_TABLE default
737.9879145 264.22198504 737.9879145 264.22192391 737.9879145 264.22186279 715.43147329 237.34138405 715.43147329 
237.34497947 715.43147329 237.34857488 

